<VTKFile type="UnstructuredGrid" version="1.0" byte_order="LittleEndian" header_type="UInt64">
<UnstructuredGrid>
<Piece NumberOfPoints="290" NumberOfCells="580">
<Points>
<DataArray NumberOfComponents="3" type="Float64">
1.0 0.0 0.0
0.0 0.5 0.0
-1.0 0.0 0.0
0.0 -0.5 0.0
0.5 0.0 0.0
0.4 0.1 0.0
0.0714285714286 0.115 0.0
-0.263157894737 0.115 0.0
-0.333333333333 0.1 0.0
-0.4 0.07 0.0
-0.4 -0.07 0.0
-0.333333333333 -0.1 0.0
0.4 -0.1 0.0
-0.333333333333 0.18 0.0
-0.4 0.13 0.0
-0.4 -0.18 0.0
-0.333333333333 -0.13 0.0
0.983247216924 0.0911385077925 0.0
0.938572400722 0.172541189722 0.0
0.875894089093 0.241251707088 0.0
0.80241466364 0.298383439376 0.0
0.722281475378 0.345799606104 0.0
0.637844398526 0.385082628558 0.0
0.550500580104 0.417417390422 0.0
0.461133357837 0.443665421881 0.0
0.370336300971 0.464448873447 0.0
0.278532642586 0.480213381481 0.0
0.186042661387 0.491270833692 0.0
0.0931243426894 0.497827243328 0.0
-0.0931243430418 0.497827243312 0.0
-0.186042662144 0.49127083362 0.0
-0.278532643758 0.480213381311 0.0
-0.370336302535 0.464448873135 0.0
-0.461133359795 0.443665421372 0.0
-0.550500582413 0.41741738966 0.0
-0.637844401199 0.385082627451 0.0
-0.722281478111 0.345799604677 0.0
-0.802414665694 0.298383437995 0.0
-0.875894090474 0.241251705835 0.0
-0.938572401434 0.172541188754 0.0
-0.983247217126 0.0911385072478 0.0
-0.983247216924 -0.0911385077925 0.0
-0.938572400722 -0.172541189722 0.0
-0.875894089093 -0.241251707088 0.0
-0.80241466364 -0.298383439376 0.0
-0.722281475378 -0.345799606104 0.0
-0.637844398526 -0.385082628558 0.0
-0.550500580104 -0.417417390422 0.0
-0.461133357837 -0.443665421881 0.0
-0.370336300971 -0.464448873447 0.0
-0.278532642586 -0.480213381481 0.0
-0.186042661387 -0.491270833692 0.0
-0.0931243426894 -0.497827243328 0.0
0.0931243430418 -0.497827243312 0.0
0.186042662144 -0.49127083362 0.0
0.278532643758 -0.480213381311 0.0
0.370336302535 -0.464448873135 0.0
0.461133359795 -0.443665421372 0.0
0.550500582413 -0.41741738966 0.0
0.637844401199 -0.385082627451 0.0
0.722281478111 -0.345799604677 0.0
0.802414665694 -0.298383437995 0.0
0.875894090474 -0.241251705835 0.0
0.938572401434 -0.172541188754 0.0
0.983247217126 -0.0911385072478 0.0
0.470710677954 0.0707106782829 0.0
0.470710678307 -0.0707106779302 0.0
0.311144681646 0.103743060531 0.0
0.254679875619 0.151084706946 0.0
0.260347155354 0.238974503636 0.0
0.179303520752 0.234339605941 0.0
0.0991802865326 0.198979690038 0.0
-0.0122180451126 0.115 0.0
-0.0958646616537 0.115 0.0
-0.179511278195 0.115 0.0
-0.298245614125 0.107499999981 0.0
-0.472454611274 0.0292014544505 0.0
-0.472454610897 -0.0292014546804 0.0
-0.4 -0.125 0.0
-0.241666666667 -0.1 0.0
-0.15 -0.1 0.0
-0.0583333333341 -0.1 0.0
0.0333333333324 -0.1 0.0
0.124999999999 -0.1 0.0
0.216666666666 -0.1 0.0
0.308333333333 -0.1 0.0
-0.73431378238 0.0131856220436 0.0
-0.601394760916 -0.182171084623 0.0
-0.260436983936 -0.318711213431 0.0
0.747666153522 -0.000486380198371 0.0
-0.59068639825 0.190626868049 0.0
0.643850431302 0.164949245255 0.0
0.654569807002 -0.16583316408 0.0
-0.136687528437 0.333393175467 0.0
-0.0125000000008 -0.297569444444 0.0
-0.457589992692 0.278785888583 0.0
0.182613734869 -0.292697549939 0.0
0.367614364391 -0.280795675878 0.0
0.431803045933 0.271612778232 0.0
-0.6021777218 -9.51475671864e-10 0.0
-0.498773779323 -0.28379698729 0.0
-0.741984707868 0.155232644163 0.0
-0.751391493832 -0.152204927359 0.0
0.493461590785 -0.204608797425 0.0
0.0198378002431 0.339687031692 0.0
-0.289434168212 0.327095010338 0.0
-0.506946656514 -0.125915522568 0.0
-0.217040180739 0.222849212678 0.0
-0.504434196588 0.126478642926 0.0
-0.382442324763 -0.303133667115 0.0
0.78187583867 0.136185324149 0.0
0.778937967582 -0.158466089608 0.0
-0.846702316373 0.070516358483 0.0
-0.849806858945 -0.0649913047178 0.0
0.621576600202 0.0382272280952 0.0
0.200527310644 0.362212970362 0.0
0.571408080522 0.273491068497 0.0
-0.135241114659 -0.362592590543 0.0
-0.316016316916 -0.222533799668 0.0
-0.660358265957 -0.0922059930438 0.0
-0.643642428971 0.092046775007 0.0
-0.126795926274 -0.226510607692 0.0
0.337020784789 0.340369068789 0.0
0.864154326126 0.050501521132 0.0
-0.0457781057871 0.230721959845 0.0
0.586213093556 -0.0723344393102 0.0
0.50421608472 0.176151001035 0.0
0.0846896540089 -0.218577521849 0.0
0.103113153641 -0.367527283083 0.0
0.370512084918 0.222282404003 0.0
-0.560816933606 0.31347103105 0.0
0.270490595494 -0.212524898332 0.0
0.604021744253 -0.283551841409 0.0
0.472516930129 -0.333009468332 0.0
0.263499101811 -0.356051497613 0.0
-0.72087384923 -0.246257517401 0.0
-0.597237191139 -0.288599403984 0.0
-0.683304824295 0.245467638606 0.0
-0.553208456538 -0.063424712101 0.0
0.876713499299 -0.0739810339416 0.0
-0.552607313203 0.0626648360628 0.0
-0.477806455009 -0.203876070801 0.0
-0.390936417782 0.3598124801 0.0
0.566495368947 0.113667921255 0.0
0.678277195438 -0.074548428802 0.0
-0.0747581472373 0.39153105742 0.0
0.120050228269 0.318013497579 0.0
-0.46930341483 0.197467542694 0.0
-0.217003213545 0.393391278057 0.0
-0.215862630356 -0.197332015659 0.0
-0.135043553397 0.188938830432 0.0
0.719280484696 0.226873535401 0.0
0.72669149987 -0.22721297513 0.0
0.41263077622 -0.194202390106 0.0
-0.0425464442361 -0.399677267267 0.0
-0.366323658273 0.264554646786 0.0
-0.0157928030939 -0.19423226178 0.0
-0.319249480397 -0.378277451961 0.0
0.70725916352 0.0781247407018 0.0
0.185290507987 -0.393577080948 0.0
0.49789485229 0.339025668578 0.0
0.132258931985 0.411764524934 0.0
-0.454984034627 -0.0966111696064 0.0
0.175879376582 -0.183244076613 0.0
0.389696564076 -0.372315163556 0.0
-0.45451279369 -0.355541899183 0.0
-0.842732832486 -0.153393379645 0.0
-0.213332164898 -0.394205743254 0.0
-0.834641455655 0.150416143009 0.0
-0.912617256452 0.00110404242327 0.0
0.527928065318 -0.124083051727 0.0
-0.521762766408 -0.000760559823932 0.0
-0.530430971462 0.233153096651 0.0
0.641970043191 0.300588215712 0.0
-0.279066627972 -0.167731662961 0.0
-0.775547720947 0.077697826494 0.0
-0.770280091114 -0.0699002492037 0.0
-0.458497148302 0.0891499996728 0.0
-0.662190216096 0.0346107447267 0.0
-0.548728546665 -0.22830651341 0.0
-0.585355069978 0.125610303482 0.0
0.413836658939 0.368272086097 0.0
-0.423098034546 -0.245647465929 0.0
-0.674200236313 -0.164693841904 0.0
-0.574109785891 -0.123172267519 0.0
-0.44794742923 -0.146280552595 0.0
-0.27093575069 0.189146210409 0.0
-0.485076181453 0.359924805142 0.0
0.0502200088808 0.425465137952 0.0
-0.65173886715 0.162555946605 0.0
-0.291685814449 0.247048149096 0.0
-0.813145963767 0.00308634338035 0.0
-0.342520691007 -0.183622253676 0.0
0.0402053290052 0.262812388225 0.0
0.853655295954 0.136994613255 0.0
-0.217934353172 0.299511594868 0.0
0.432630650109 0.175646931688 0.0
-0.0541211711363 0.308808870803 0.0
-0.54850728868 -0.341366651167 0.0
-0.798661385656 -0.218298194174 0.0
-0.760757854812 0.231638118543 0.0
-0.311084028955 0.405348575982 0.0
0.572919345733 0.197918919019 0.0
0.854849759823 -0.151418766086 0.0
0.27570128751 0.387340214236 0.0
0.0164627804473 0.181719646712 0.0
0.32376398819 0.265465172131 0.0
0.552674573185 -0.337334926328 0.0
0.577368651434 -0.19913128996 0.0
-0.185987726264 -0.291085064619 0.0
-0.611365405823 -0.0656465651734 0.0
0.566524480345 -0.0118182526555 0.0
0.7801782699 -0.0855183150105 0.0
0.33692817824 -0.172455795479 0.0
0.794519854671 0.065191754646 0.0
0.456540375042 -0.257165423167 0.0
0.807757596688 -0.215346594931 0.0
0.920073974225 0.00896960521208 0.0
-0.642356420608 0.309343057042 0.0
0.460946222126 -0.138720983437 0.0
-0.22438068579 0.159361825833 0.0
0.804639002626 0.210414921198 0.0
0.289565629081 -0.288589678561 0.0
0.0691633595708 -0.298974574179 0.0
-0.39647861154 0.190443779891 0.0
0.263702142247 0.315907970069 0.0
-0.606107016779 0.0584660801706 0.0
-0.679972512018 -0.0402946557029 0.0
-0.090160934402 -0.298820828258 0.0
0.0456338344677 -0.427509295133 0.0
0.673922545232 -0.288194712854 0.0
-0.140131964921 0.43054297089 0.0
0.716499268574 -0.140755452634 0.0
-0.363949108451 -0.23650155925 0.0
0.500328563307 0.244705517235 0.0
0.677512010382 3.80454240556e-05 0.0
0.571367947737 0.346567366242 0.0
-0.500357871479 -0.0674672683609 0.0
0.708494456052 0.148914079336 0.0
-0.449371300551 0.143315449729 0.0
-0.103705463831 -0.156346809906 0.0
-0.287231102001 0.141834672704 0.0
-0.907337494167 -0.0987381690203 0.0
-0.135103466253 -0.434410953415 0.0
-0.907779510104 0.101150325524 0.0
-0.0544883171007 0.166276087398 0.0
-0.701569620569 0.0892215931731 0.0
-0.547115081343 -0.171070036625 0.0
0.631682033532 0.103627545434 0.0
-0.666190572978 -0.305953482086 0.0
0.184852326994 0.301085891262 0.0
-0.392935121939 -0.392270166629 0.0
0.125069336352 -0.434602797206 0.0
-0.611745899473 0.252063455026 0.0
0.53884045947 0.0497471398873 0.0
0.312927913482 0.186692254679 0.0
0.214612566822 0.426560384941 0.0
-0.536025941854 0.176518250084 0.0
0.830551012957 -0.00588714136006 0.0
0.626020675985 -0.0240871694497 0.0
-0.500655272913 0.0673663357764 0.0
0.36306496007 0.152224573222 0.0
-0.317029757297 -0.283096690821 0.0
0.529063283056 -0.270298527197 0.0
0.528436661339 -0.0541326065983 0.0
0.0325727806885 -0.358251572821 0.0
-0.713060069777 -0.103000936647 0.0
0.319702987801 -0.40586666528 0.0
0.335085534959 0.40812872481 0.0
-0.160674054416 0.260320408505 0.0
-0.44189137084 -0.2979142703 0.0
-0.019564936231 0.430902094075 0.0
0.0791666666658 -0.150559488197 0.0
0.502248121287 0.121111774743 0.0
-0.626707096748 -0.133243927928 0.0
-0.634209481816 -0.235803383681 0.0
0.91194064279 0.0920290874227 0.0
-0.103661960835 0.262285957602 0.0
0.0805917423444 0.373732548039 0.0
0.248875438171 -0.420291222157 0.0
0.121714656658 0.256375232131 0.0
0.629814875717 0.230750166118 0.0
0.647314849558 -0.232784796687 0.0
0.2625 -0.147211808559 0.0
0.60487136255 -0.127186074776 0.0
-0.262400007124 -0.24674840786 0.0
0.378168405847 0.299628223324 0.0
-0.167605885719 -0.157453113339 0.0
-0.422423919334 0.232812964488 0.0
0.326015729432 -0.340723736178 0.0
</DataArray>
</Points>
<Cells>
<DataArray type="Int32" Name="connectivity">
0 17
17 18
18 19
19 20
20 21
21 22
22 23
23 24
24 25
25 26
26 27
27 28
28 1
1 29
29 30
30 31
31 32
32 33
33 34
34 35
35 36
36 37
37 38
38 39
39 40
40 2
2 41
41 42
42 43
43 44
44 45
45 46
46 47
47 48
48 49
49 50
50 51
51 52
52 3
3 53
53 54
54 55
55 56
56 57
57 58
58 59
59 60
60 61
61 62
62 63
63 64
64 0
4 65
65 5
12 66
66 4
5 67
67 68
68 69
69 70
70 71
71 6
6 72
72 73
73 74
74 7
7 75
75 8
8 13
13 14
14 9
9 76
76 77
77 10
10 78
78 15
15 16
16 11
11 79
79 80
80 81
81 82
82 83
83 84
84 85
85 12
44 45 135
156 121 228
148 93 231
94 127 156
93 145 231
63 64 139
212 144 232
127 96 163
131 97 213
44 135 199
150 107 220
13 8 241
127 94 223
96 127 223
34 35 130
128 96 223
94 156 228
57 58 133
96 128 159
137 36 200
76 9 177
47 165 198
169 41 242
174 16 192
120 180 189
34 130 187
97 131 222
96 131 163
120 189 246
148 31 201
130 95 187
89 144 212
98 129 196
5 65 273
63 139 203
20 21 151
133 97 164
30 31 148
98 196 234
180 90 189
97 133 215
97 153 213
2 41 169
196 5 273
60 61 152
95 130 172
142 95 155
135 102 199
111 212 232
196 126 234
60 152 230
151 21 173
134 96 159
38 168 200
57 133 164
47 48 165
74 150 220
166 102 176
189 101 246
131 96 222
141 15 185
96 134 222
105 142 155
113 166 176
105 148 201
136 100 179
74 73 150
101 168 175
144 125 284
36 37 200
132 59 230
168 112 175
129 98 286
32 33 142
88 167 209
102 135 183
137 101 189
99 138 171
133 58 207
15 141 182
206 129 286
92 144 284
52 3 154
217 17 276
140 99 171
59 132 207
95 142 187
0 17 217
165 100 198
141 100 182
86 176 227
146 115 161
154 94 228
136 46 198
117 154 228
167 117 209
139 64 217
153 12 213
113 169 242
40 2 169
194 19 221
106 141 185
124 193 197
37 38 200
40 169 244
88 157 167
143 91 202
82 81 156
138 106 237
100 136 198
23 24 160
157 50 167
77 171 237
108 147 257
49 50 157
142 33 187
101 137 200
121 156 240
91 143 248
141 106 247
227 176 266
106 138 184
210 99 227
7 74 220
160 24 181
193 104 197
140 108 180
130 35 218
146 104 193
18 19 194
135 45 249
149 79 174
107 150 269
173 22 236
52 154 243
108 140 260
142 105 201
126 143 202
121 149 209
98 160 181
147 108 239
38 39 168
143 126 273
145 104 271
9 14 177
125 144 259
111 203 212
36 137 218
99 178 227
84 83 163
91 151 281
168 39 244
190 107 195
26 204 268
203 139 212
209 149 285
148 105 195
171 138 237
78 10 162
139 217 258
21 22 173
168 101 200
24 25 181
112 169 191
116 173 236
92 152 232
169 113 191
145 93 197
32 142 201
46 136 249
93 148 195
154 117 243
82 156 272
138 99 210
114 143 254
12 85 213
104 145 197
56 57 164
217 123 258
115 146 250
153 103 219
100 141 179
25 26 268
189 90 253
152 111 232
12 153 219
86 175 191
158 238 248
13 155 224
70 69 250
68 67 255
50 51 167
99 140 226
181 25 268
176 86 191
156 127 272
67 5 261
157 109 251
163 83 272
59 60 230
105 190 195
151 91 238
144 89 235
255 67 261
104 146 278
147 95 172
152 92 282
42 43 166
171 76 260
238 91 248
29 145 271
155 13 190
27 28 161
150 73 245
69 225 250
158 114 235
169 112 244
155 95 288
109 157 262
90 172 253
77 76 171
110 151 238
145 29 231
112 168 244
79 149 287
137 189 253
109 165 251
7 220 241
147 172 257
144 92 232
124 150 245
89 158 235
118 174 192
158 89 214
127 163 272
156 81 240
20 151 221
111 152 216
151 110 221
143 114 248
162 77 237
105 155 190
110 194 221
152 61 216
182 100 270
46 47 198
94 154 265
153 97 215
150 124 277
175 112 191
179 141 247
14 13 224
104 188 271
194 110 214
110 158 214
113 176 191
123 194 214
114 158 248
30 148 231
64 0 217
103 153 215
179 87 275
160 98 234
180 120 226
157 88 262
154 3 229
151 173 281
140 171 260
167 51 243
172 130 253
58 59 207
136 179 275
103 170 219
78 162 185
161 28 188
146 193 280
116 160 234
69 68 255
98 181 286
175 86 246
177 14 239
100 165 270
149 121 287
215 133 263
14 224 239
117 167 243
66 170 264
102 166 199
140 180 226
126 202 234
86 178 246
101 175 246
162 106 185
33 34 187
6 71 205
15 78 185
163 131 283
28 1 188
184 138 210
161 115 256
62 63 203
184 210 274
84 163 283
72 6 205
166 113 242
42 166 242
178 99 226
159 54 279
170 66 219
170 125 264
159 128 252
126 196 273
80 79 287
27 161 256
202 116 234
103 215 263
166 43 199
118 233 262
132 208 263
13 186 190
122 204 225
204 115 225
211 114 254
49 157 251
119 210 227
35 36 218
88 209 285
123 217 276
66 12 219
186 107 190
19 20 221
43 44 199
1 29 271
3 53 229
87 183 275
158 110 238
62 203 216
54 55 279
164 97 289
31 32 201
54 159 252
174 118 285
61 62 216
160 116 236
183 119 266
233 109 262
134 159 279
165 48 251
165 109 270
65 254 273
120 178 226
170 103 208
95 147 288
229 53 252
106 162 237
48 49 251
210 119 274
224 147 239
146 161 278
193 124 205
55 56 267
208 132 282
45 46 249
208 103 263
173 116 281
69 206 225
17 18 276
29 30 231
65 4 254
23 160 236
180 108 257
224 155 288
119 227 266
107 186 220
71 193 205
203 111 216
183 135 275
15 182 233
53 54 252
102 183 266
172 90 257
5 196 261
177 108 260
22 23 236
181 122 286
121 209 228
209 117 228
206 122 225
178 86 227
212 139 258
128 229 252
56 164 267
71 70 280
41 42 242
125 170 284
81 80 240
39 40 244
129 206 255
196 129 261
26 27 256
51 52 243
254 143 273
18 194 276
220 186 241
182 109 233
206 69 255
73 72 245
205 124 245
72 205 245
55 267 279
106 184 247
129 255 261
193 71 280
76 177 260
149 174 285
176 102 266
133 207 263
90 180 257
122 181 268
178 120 246
92 208 282
119 183 274
108 177 239
83 82 272
75 7 241
4 66 264
85 84 283
183 87 274
87 179 247
192 15 233
195 107 269
225 115 250
116 202 281
161 188 278
188 104 278
186 13 241
249 136 275
188 1 271
118 192 233
118 262 285
184 87 247
218 137 253
135 249 275
70 250 280
204 26 256
230 152 282
223 94 265
194 123 276
204 122 268
128 223 265
124 197 277
4 211 254
114 211 259
115 204 256
211 4 264
131 213 283
197 93 277
93 195 269
213 85 283
170 208 284
87 184 274
267 134 279
130 218 253
250 146 280
121 240 287
207 132 263
89 212 258
235 114 259
125 211 264
214 89 258
109 182 270
144 235 259
211 125 259
123 214 258
269 150 277
202 91 281
97 222 289
229 128 265
154 229 265
208 92 284
222 134 289
93 269 277
122 206 286
132 230 282
262 88 285
267 164 289
134 267 289
240 80 287
147 224 288
16 15 192
8 75 241
10 77 162
16 79 11
79 16 174
</DataArray>
<DataArray type="Int32" Name="offsets">
2
4
6
8
10
12
14
16
18
20
22
24
26
28
30
32
34
36
38
40
42
44
46
48
50
52
54
56
58
60
62
64
66
68
70
72
74
76
78
80
82
84
86
88
90
92
94
96
98
100
102
104
106
108
110
112
114
116
118
120
122
124
126
128
130
132
134
136
138
140
142
144
146
148
150
152
154
156
158
160
162
164
166
168
170
172
175
178
181
184
187
190
193
196
199
202
205
208
211
214
217
220
223
226
229
232
235
238
241
244
247
250
253
256
259
262
265
268
271
274
277
280
283
286
289
292
295
298
301
304
307
310
313
316
319
322
325
328
331
334
337
340
343
346
349
352
355
358
361
364
367
370
373
376
379
382
385
388
391
394
397
400
403
406
409
412
415
418
421
424
427
430
433
436
439
442
445
448
451
454
457
460
463
466
469
472
475
478
481
484
487
490
493
496
499
502
505
508
511
514
517
520
523
526
529
532
535
538
541
544
547
550
553
556
559
562
565
568
571
574
577
580
583
586
589
592
595
598
601
604
607
610
613
616
619
622
625
628
631
634
637
640
643
646
649
652
655
658
661
664
667
670
673
676
679
682
685
688
691
694
697
700
703
706
709
712
715
718
721
724
727
730
733
736
739
742
745
748
751
754
757
760
763
766
769
772
775
778
781
784
787
790
793
796
799
802
805
808
811
814
817
820
823
826
829
832
835
838
841
844
847
850
853
856
859
862
865
868
871
874
877
880
883
886
889
892
895
898
901
904
907
910
913
916
919
922
925
928
931
934
937
940
943
946
949
952
955
958
961
964
967
970
973
976
979
982
985
988
991
994
997
1000
1003
1006
1009
1012
1015
1018
1021
1024
1027
1030
1033
1036
1039
1042
1045
1048
1051
1054
1057
1060
1063
1066
1069
1072
1075
1078
1081
1084
1087
1090
1093
1096
1099
1102
1105
1108
1111
1114
1117
1120
1123
1126
1129
1132
1135
1138
1141
1144
1147
1150
1153
1156
1159
1162
1165
1168
1171
1174
1177
1180
1183
1186
1189
1192
1195
1198
1201
1204
1207
1210
1213
1216
1219
1222
1225
1228
1231
1234
1237
1240
1243
1246
1249
1252
1255
1258
1261
1264
1267
1270
1273
1276
1279
1282
1285
1288
1291
1294
1297
1300
1303
1306
1309
1312
1315
1318
1321
1324
1327
1330
1333
1336
1339
1342
1345
1348
1351
1354
1357
1360
1363
1366
1369
1372
1375
1378
1381
1384
1387
1390
1393
1396
1399
1402
1405
1408
1411
1414
1417
1420
1423
1426
1429
1432
1435
1438
1441
1444
1447
1450
1453
1456
1459
1462
1465
1468
1471
1474
1477
1480
1483
1486
1489
1492
1495
1498
1501
1504
1507
1510
1513
1516
1519
1522
1525
1528
1531
1534
1537
1540
1543
1546
1549
1552
1555
1558
1561
1564
1567
1570
1573
1576
1579
1582
1585
1588
1591
1594
1597
1600
1603
1606
1609
1612
1615
1618
1621
1624
1627
1630
1633
1636
1639
1642
1645
1648
1651
1654
</DataArray>
<DataArray type="UInt8" Name="types">
3
3
3
3
3
3
3
3
3
3
3
3
3
3
3
3
3
3
3
3
3
3
3
3
3
3
3
3
3
3
3
3
3
3
3
3
3
3
3
3
3
3
3
3
3
3
3
3
3
3
3
3
3
3
3
3
3
3
3
3
3
3
3
3
3
3
3
3
3
3
3
3
3
3
3
3
3
3
3
3
3
3
3
3
3
3
5
5
5
5
5
5
5
5
5
5
5
5
5
5
5
5
5
5
5
5
5
5
5
5
5
5
5
5
5
5
5
5
5
5
5
5
5
5
5
5
5
5
5
5
5
5
5
5
5
5
5
5
5
5
5
5
5
5
5
5
5
5
5
5
5
5
5
5
5
5
5
5
5
5
5
5
5
5
5
5
5
5
5
5
5
5
5
5
5
5
5
5
5
5
5
5
5
5
5
5
5
5
5
5
5
5
5
5
5
5
5
5
5
5
5
5
5
5
5
5
5
5
5
5
5
5
5
5
5
5
5
5
5
5
5
5
5
5
5
5
5
5
5
5
5
5
5
5
5
5
5
5
5
5
5
5
5
5
5
5
5
5
5
5
5
5
5
5
5
5
5
5
5
5
5
5
5
5
5
5
5
5
5
5
5
5
5
5
5
5
5
5
5
5
5
5
5
5
5
5
5
5
5
5
5
5
5
5
5
5
5
5
5
5
5
5
5
5
5
5
5
5
5
5
5
5
5
5
5
5
5
5
5
5
5
5
5
5
5
5
5
5
5
5
5
5
5
5
5
5
5
5
5
5
5
5
5
5
5
5
5
5
5
5
5
5
5
5
5
5
5
5
5
5
5
5
5
5
5
5
5
5
5
5
5
5
5
5
5
5
5
5
5
5
5
5
5
5
5
5
5
5
5
5
5
5
5
5
5
5
5
5
5
5
5
5
5
5
5
5
5
5
5
5
5
5
5
5
5
5
5
5
5
5
5
5
5
5
5
5
5
5
5
5
5
5
5
5
5
5
5
5
5
5
5
5
5
5
5
5
5
5
5
5
5
5
5
5
5
5
5
5
5
5
5
5
5
5
5
5
5
5
5
5
5
5
5
5
5
5
5
5
5
5
5
5
5
5
5
5
5
5
5
5
5
5
5
5
5
5
5
5
5
5
5
5
5
5
5
5
5
5
5
5
5
5
5
5
5
5
5
5
5
5
5
5
5
5
5
5
5
5
5
5
5
5
5
5
5
5
5
5
5
5
5
5
5
5
5
5
5
5
5
5
5
5
5
5
5
5
5
5
5
5
5
5
5
5
5
5
5
5
5
5
5
5
5
5
5
5
5
5
5
5
</DataArray>
</Cells>
<PointData Scalars="solution">
<DataArray type="Float64" Name="Real part" format="ascii">
0.526922406632
-0.0169479133475
0.307454531058
0.0592857926957
-1.0
-0.809016994375
0.900968867902
-0.0825793454723
-0.5
-0.809016994375
-0.809016994375
-0.5
-0.809016994375
-0.5
-0.809016994375
-0.809016994375
-0.5
0.521854504807
0.489954801104
0.408558352886
0.281987664537
0.0918375150655
-0.121081641607
-0.336812146129
-0.496491244459
-0.570636800305
-0.550901578576
-0.425089071418
-0.231360455753
0.18435576705
0.343526498731
0.42670363992
0.470545141543
0.473509476767
0.474242487804
0.472954547006
0.466293105456
0.433660987533
0.407173232991
0.362120515102
0.324449766099
0.329136162868
0.3678201035
0.406955283655
0.439616129986
0.446078286079
0.450782289753
0.436731870169
0.437842319943
0.447249807563
0.445576789683
0.38081884903
0.240799480424
-0.142200367956
-0.315298697674
-0.421211756328
-0.435329064707
-0.368463970394
-0.232602587385
-0.0440860873665
0.14256310089
0.309295552989
0.419616612762
0.491665905236
0.530380743305
-0.983114172777
-0.983114173183
-0.374802155873
-0.0294002885887
-0.0649673056654
0.429734823093
0.812033586713
0.997054765417
0.824014680323
0.428555759052
-0.29851481154
-0.985060254362
-0.985060253954
-0.809016994375
0.0523359562417
0.58778525229
0.933580426496
0.978147600735
0.70710678119
0.207911690821
-0.358367949544
0.148113562735
-0.0715292454018
0.350152940597
-0.265225018979
-0.0166263407435
-0.572510793565
-0.490050248274
0.54740674332
0.573999489438
0.0541366098307
0.0414112292402
-0.576142136079
-0.701366316461
-0.340086292436
0.0324306054858
0.278501842548
0.268115512808
-0.777091560797
0.46832483055
0.325503471102
-0.55550018574
0.324342076112
-0.494976555663
0.0860700483786
-0.0452498232401
-0.00346139084382
0.361986002843
0.36058177212
-0.776146190927
-0.113748325619
-0.587067111755
0.510596859664
-0.0880663536915
-0.047745658951
-0.0782034033014
0.633436647313
-0.514205343664
0.222817900548
0.792065975438
-0.838700467401
-0.854254725599
0.567042726049
0.141000144164
-0.599454374561
0.287665839219
-0.224161675008
-0.400760536019
-0.561741907884
-0.318798849448
0.335657434711
0.210929865554
0.312421895351
-0.523783587816
0.288716468821
-0.499373599887
-0.361405685728
0.322484769572
-0.869191174551
-0.529819494048
0.433362177208
0.312617949792
-0.286295691818
0.458611463948
0.31860462029
0.648110673388
-0.170957449184
-0.0939271233192
-0.726205794107
0.388613339238
-0.0021369642519
0.803587048161
0.37529942547
-0.421418154439
-0.153079897122
-0.604183714477
-0.0619977151283
-0.772286705502
0.279933461175
-0.515105352248
0.249957809625
0.388879130627
0.464006530361
0.387407351747
0.383167356794
-0.887779490969
-0.730448892899
-0.0181600734841
-0.309335883467
-0.0635903130448
0.272848001339
0.251822205666
-0.748306822083
-0.0772561044546
-0.0773927111074
-0.21514856515
-0.611940327029
-0.240141358763
0.105241086422
-0.313963558591
-0.678209813244
-0.0109855284773
0.335905977791
0.109940630276
0.0812626285177
0.0874892188705
0.317486368558
-0.388235485748
0.689815131023
0.23710305417
0.42692081443
-0.802437462906
0.620605333287
0.278856965082
0.389511965725
0.386721104267
0.423739240552
-0.726151436682
0.268582037578
-0.409560756227
0.899733077592
-0.419223596364
-0.409103725431
-0.666913324213
0.488059930492
-0.267889288703
-0.919922603642
-0.0771440491343
-0.499523734792
-0.0447946980579
-0.686134417459
0.186791340481
0.39380900421
0.365483108803
-0.872835826027
0.211889664632
0.143106147062
-0.344319601133
0.405633306908
-0.434017814099
-0.240812313079
-0.273817715375
-0.0172942954769
0.604125296305
0.141522060421
-0.157113217788
0.402225159341
-0.2857833184
-0.207566642838
-0.755522802907
-0.565924389058
-0.428176679549
-0.741118077855
-0.340020513646
-0.586182281784
0.737626924212
-0.203703999753
0.380774302543
0.414462520259
0.378529228872
0.871854032627
0.101772808545
-0.27485478334
-0.691014064698
0.347068985263
0.145674684794
0.349765891932
-0.074885778966
0.197361703285
-0.964701572707
-0.355032329285
-0.331549198912
-0.212658885761
0.0952271412397
-0.750491831096
-0.709056557424
-0.60793006698
0.131888275495
-0.609209904001
-0.95944227479
0.346803494319
0.127547892135
-0.444192692862
-0.544688316743
0.544402844214
0.0359274699702
0.239861786868
0.750909284802
-0.939001011532
-0.100662086085
0.150461546683
0.384891156072
0.661651918328
0.21358842627
-0.338836148097
0.537606507918
-0.500167746988
-0.378656453163
-0.121248875101
-0.71756056729
0.208383099155
-0.596389562778
0.505281475541
-0.175342542441
-0.45630642411
</DataArray>
<DataArray type="Float64" Name="Imag part" format="ascii">
-0.133243406114
0.509288324123
0.207068886802
0.422381652636
1.22464679915e-16
0.587785252292
0.433883739118
-0.996584493007
-0.866025403784
-0.587785252292
-0.587785252292
-0.866025403784
0.587785252292
-0.866025403784
-0.587785252292
-0.587785252292
-0.866025403784
-0.175607974093
-0.273520053496
-0.401462392573
-0.529449239278
-0.596248906859
-0.591334880557
-0.498678731439
-0.293443282868
-0.0379792253989
0.213984385517
0.410179451095
0.509021662126
0.418427014414
0.262680032115
0.0795709146191
-0.0702612409987
-0.166225079082
-0.196242255376
-0.169159122915
-0.105513276461
-0.0142507064025
0.0746566448521
0.149189619396
0.194519857624
0.187468235078
0.131927185758
0.0451224936741
-0.053159732223
-0.151032050558
-0.222815251566
-0.244710617167
-0.206582938487
-0.104986496814
0.0506903752161
0.219726646444
0.346571010814
0.389854020059
0.269622602953
0.083490597922
-0.131987384061
-0.340379080207
-0.504849319608
-0.581216461069
-0.564605316205
-0.494802080297
-0.374022999093
-0.257454332571
-0.167782074479
0.182993232893
0.182993230715
0.927104818212
0.999567718082
0.997887393043
0.902955138322
0.583610704194
-0.0766928598986
-0.566568448303
-0.903515335444
-0.954405001711
-0.172210032452
-0.172210034782
-0.587785252292
-0.998629534755
-0.809016994377
-0.35836794955
0.207911690812
0.707106781183
0.978147600733
0.933580426498
-0.483768604981
-0.614076377035
-0.423485525177
-0.656902004742
-0.606535134587
-0.513327701165
-0.547888990448
-0.0500905876516
0.21012926744
-0.621198236514
0.618201244391
0.313848042377
0.21757640694
-0.609726583293
-0.586753720169
-0.381833856169
-0.382658536711
-0.0387359741456
0.468684812426
-0.439753994489
-0.612422602598
-0.644337727069
-0.622955840847
-0.569409261845
-0.632233114842
-0.613216296401
-0.168084229592
-0.170877461616
-0.443097259181
0.690219106197
-0.364310051294
-0.0197067879188
-0.716075637853
-0.588663161619
-0.598331089633
-0.364639650027
0.445295564262
-0.53099370925
0.0213373867099
-0.332518408529
0.00329057083715
0.502608776257
0.476044705033
0.588331894721
-0.460302546904
0.730974695324
-0.490109250517
-0.181043603558
0.403168548101
-0.33920093231
-0.490254257682
-0.387778127306
-0.569313281565
-0.496069350316
-0.570377183786
-0.657686961486
-0.422564989186
-0.247113798437
-0.591648635774
0.281853117541
0.711080078771
-0.689365923797
-0.0770921571864
-0.703104587366
-0.508295131997
-0.627755397523
-0.618092336132
0.336544517404
0.281567454269
-0.677114316488
0.0507482932028
-0.323646616914
-0.627712408879
0.438138505111
-0.198442594719
0.618122160918
-0.544350845345
0.770374312006
0.0147529551147
-0.451302115946
-0.13678564349
-0.105431479433
-0.141650072847
-0.00100148245454
-0.110647870194
-0.431286788168
-0.629143882073
-0.556849919677
-0.841247340583
-0.362146585419
-0.392918735305
-0.530530022136
-0.593024122124
-0.622280706629
-0.635096289496
0.0692783991937
-0.64227521779
-0.535049251907
-0.6341234002
-0.614256063589
-0.827265342189
-0.406700299492
0.563661193641
-0.556913119678
-0.693954215901
-0.285278385537
-0.753859953574
0.452256620374
-0.530588048423
-0.393210069456
0.363293454831
0.171044589242
-0.434597598984
-0.183232791659
-0.230930142696
-0.202785860973
-0.303572649623
-0.503194059609
0.49572241336
0.215522144441
0.700267733811
-0.418950142108
-0.358969876784
-0.359679637866
-0.618272768039
-0.250965981104
-0.648892424754
0.673773756141
-0.64046917266
0.0269411463455
-0.545853953165
-0.395099895268
-0.341345639604
0.200505891018
-0.856611595716
-0.575333776307
0.509471056031
0.45293088871
-0.734983265682
0.734525182195
-0.612768014379
-0.581306185449
-0.0492527724823
0.42050165799
-0.583180716614
0.206682258168
-0.624213574073
-0.674892645453
-0.0520552721229
-0.576719720278
-0.445904378344
-0.462411638632
-0.618456926949
-0.63944344977
-0.45103841146
-0.934695005414
0.00476054263445
0.160895072798
0.0182449154461
-0.194241468048
-0.520674653601
-0.645007117043
-0.469533415723
-0.343947944662
0.809111038438
-0.337133971267
0.422919347497
-0.506268601141
-0.134913750874
0.864680275875
0.515790993778
-0.652516640891
-0.602028354219
-0.453327985038
-0.472021274875
0.708685019912
-0.587502523849
-0.266421606428
-0.0954099206389
0.384269726513
-0.501338671583
0.146215722413
0.250255143274
-0.357957150859
-0.572656813913
0.458470196272
0.479260918664
0.0379602901506
-0.611121356048
-0.521328013919
-0.398262531985
-0.142618442977
0.608868383387
0.284443094423
0.717481092443
-0.498377271501
-0.546859039287
0.881082612565
-0.408314653371
-0.63669528748
0.391783259744
-0.696140499265
-0.695516428645
0.288394892185
</DataArray>
</PointData>
</Piece>
</UnstructuredGrid>
</VTKFile>