<VTKFile type="UnstructuredGrid" version="1.0" byte_order="LittleEndian" header_type="UInt64">
<UnstructuredGrid>
<Piece NumberOfPoints="3988" NumberOfCells="7975">
<Points>
<DataArray NumberOfComponents="3" type="Float64">
0.9 0.0 0.0
1.0 0.1 0.0
1.0 -0.1 0.0
1.8 0.1 0.0
1.8 -0.1 0.0
1.8 -0.2 0.0
1.8 0.2 0.0
0.2139123850310312 0.9819579886789128 0.0
0.4611267881192866 1.742802939313218 0.0
0.3660211692899985 1.77370473969925 0.0
0.6513380257778627 1.680999338541154 0.0
0.7464436446071508 1.650097538155122 0.0
0.4041236226896073 0.9201543879068489 0.0
0.2781162034742873 0.8559505694635928 0.0
-0.8677944435534215 0.5068853950725033 0.0
-1.515007040817715 0.9771149708569354 0.0
-1.57378573779077 0.8962133961988986 0.0
-1.397449646871608 1.138918120173009 0.0
-1.338670949898553 1.219819694831046 0.0
-0.7502370496073134 0.6686885443885767 0.0
-0.7281141719223307 0.5290082727574861 0.0
-0.7502405984469407 -0.6686845627364044 0.0
-1.397455691294926 -1.138910703640729 0.0
-1.338677423681885 -1.219812590246728 0.0
-1.515012226521007 -0.9771069304287331 0.0
-1.573790494134048 -0.896205043822735 0.0
-0.8677971336730219 -0.5068807895244081 0.0
-0.7281169794539832 -0.5290044085173656 0.0
0.4041187392593316 -0.9201565326505314 0.0
0.6513291044033144 -1.681002795285355 0.0
0.7464348872326674 -1.650101499642357 0.0
0.4611175387446085 -1.742805386571351 0.0
0.3660117559152556 -1.773706682214348 0.0
0.2139071736006257 -0.9819591239365271 0.0
0.2781116607869807 -0.8559520454641764 0.0
4.4 0.0 0.0
0.0 2.2 0.0
-4.4 0.0 0.0
0.0 -2.2 0.0
1.047570481265821 0.1 0.0
1.097969644278137 0.1 0.0
1.151365693110842 0.1 0.0
1.207936857335381 0.1 0.0
1.267871897131668 0.1 0.0
1.331370864357776 0.1 0.0
1.398645677083208 0.1 0.0
1.46992084127128 0.1 0.0
1.545434276028882 0.1 0.0
1.625437954224644 0.1 0.0
1.710198904883919 0.1 0.0
1.047570481265821 -0.1 0.0
1.097969644278137 -0.1 0.0
1.151365693110842 -0.1 0.0
1.207936857335381 -0.1 0.0
1.267871897131668 -0.1 0.0
1.331370864357776 -0.1 0.0
1.398645677083208 -0.1 0.0
1.46992084127128 -0.1 0.0
1.545434276028882 -0.1 0.0
1.625437954224644 -0.1 0.0
1.710198904883919 -0.1 0.0
0.9617316566635727 0.09238795320974119 0.0
0.9292893216937538 0.07071067793106328 0.0
0.9076120467098667 0.03826834314234369 0.0
0.9076120468126708 -0.03826834339053449 0.0
0.9292893220382442 -0.0707106782755537 0.0
0.9617316569972671 -0.0923879533479619 0.0
0.2286125201944827 1.027200189266882 0.0
0.2441867689447811 1.075132625134532 0.0
0.2606871093690907 1.125915267807262 0.0
0.2781686176138095 1.179717623621934 0.0
0.2966896239729429 1.236719214115761 0.0
0.3163119480723459 1.297110299846356 0.0
0.3371010764108355 1.361092426805122 0.0
0.3591263853730519 1.428879112777784 0.0
0.382461396246477 1.500696632203236 0.0
0.4071839731840158 1.57678462543751 0.0
0.4333766329620485 1.657397052087603 0.0
0.4188237578530576 0.9653965884948142 0.0
0.4343980066033555 1.013329024362462 0.0
0.450898347027665 1.064111667035192 0.0
0.4683798552723841 1.117914022849866 0.0
0.4869008616315176 1.174915613343692 0.0
0.5065231857309209 1.235306699074288 0.0
0.5273123140694105 1.299288826033054 0.0
0.5493376230316274 1.367075512005718 0.0
0.5726726339050527 1.438893031431171 0.0
0.5973952108425917 1.514981024665446 0.0
0.6235878706206245 1.595593451315539 0.0
0.2093262621561498 0.9432103845743846 0.0
0.2199173033392366 0.9056572327250227 0.0
0.2440731183801526 0.8750156606121234 0.0
0.3168638077239672 0.8513644466001351 0.0
0.3544169593868921 0.8619554877507625 0.0
0.3850585315608422 0.8861113028358567 0.0
-0.9062797119699075 0.5348467041043858 0.0
-0.9470534284613428 0.564470675408351 0.0
-0.9902516727721717 0.5958561771473081 0.0
-1.036018635432208 0.629107970340979 0.0
-1.084507026399331 0.6643370057635222 0.0
-1.135878690776839 0.7016608712903719 0.0
-1.190305073619952 0.741204129601438 0.0
-1.247967803788195 0.7830987423765857 0.0
-1.309059361585469 0.8274845553667048 0.0
-1.373783597030184 0.8745096749406855 0.0
-1.442356540808652 0.9243310572801755 0.0
-0.7887223180238001 0.6966498534204597 0.0
-0.82949603451524 0.7262738247244284 0.0
-0.872694278826069 0.7576593264633854 0.0
-0.918461241486104 0.7909111196570552 0.0
-0.9669496324532149 0.8261401550795895 0.0
-1.018321296830722 0.8634640206064385 0.0
-1.07274767967385 0.9030072789175158 0.0
-1.130410409842086 0.9449018916926585 0.0
-1.191501967639353 0.9892877046827724 0.0
-1.256226203084068 1.036312824256753 0.0
-1.324799146862545 1.08613420659625 0.0
-0.8323604893359409 0.4905500272360533 0.0
-0.7933725096102281 0.4890181024843472 0.0
-0.7567660710476163 0.5025228424159288 0.0
-0.7117788040988557 0.5644422269209227 0.0
-0.7102468793421672 0.6034302067511436 0.0
-0.723751619253794 0.6400366452437705 0.0
-0.7887260152585742 -0.696645667519663 0.0
-0.8294998889691781 -0.7262694224297802 0.0
-0.8726982998478893 -0.7576546949074522 0.0
-0.9184654389805198 -0.7909062452071651 0.0
-0.9669540169137593 -0.8261350232926 0.0
-1.018325879375011 -0.8634586161802826 0.0
-1.072752472080527 -0.9030015856402018 0.0
-1.130415424590196 -0.9448958923882979 0.0
-1.191507217950083 -0.9892813811539183 0.0
-1.256231702964643 -1.036306157224096 0.0
-1.324804911153167 -1.086127175633956 0.0
-0.9062825504846558 -0.5348418943076667 0.0
-0.9470564241952606 -0.5644656492177849 0.0
-0.9902548350739713 -0.5958509216954564 0.0
-1.036021974206593 -0.6291024719951627 0.0
-1.084510552139834 -0.6643312500805992 0.0
-1.135882414601087 -0.701654842968283 0.0
-1.190309007306607 -0.7411978124282044 0.0
-1.247971959816274 -0.7830921191762987 0.0
-1.309063753176162 -0.8274776079419199 0.0
-1.373788238190714 -0.8745023840120931 0.0
-1.442361446379246 -0.9243234024219585 0.0
-0.723755015964351 -0.6400328040428802 0.0
-0.7102500818116468 -0.6034264371265977 0.0
-0.7117817997115121 -0.564438449265003 0.0
-0.7567687382791998 -0.5025188259540743 0.0
-0.7933751054529663 -0.4890138918204311 0.0
-0.8323630930395819 -0.4905456098093531 0.0
0.4188186343140928 -0.9653988112541212 0.0
0.4343926286781236 -1.013331329776422 0.0
0.4508926995895964 -1.064114060018707 0.0
0.4683739222953058 -1.117916508610129 0.0
0.486894626136506 -1.174918197397476 0.0
0.5065166297292942 -1.235309387266415 0.0
0.5273054185028514 -1.299291624555913 0.0
0.5493303677086356 -1.367078427419873 0.0
0.5726649974332634 -1.43889607068742 0.0
0.5973871705578073 -1.514984195127772 0.0
0.6235794025108472 -1.595596760785882 0.0
0.2286070686553847 -1.02720140254011 0.0
0.244181063019417 -1.075133921062415 0.0
0.2606811339308903 -1.125916651304702 0.0
0.2781623566366005 -1.179719099896127 0.0
0.2966830604777991 -1.236720788683469 0.0
0.3163050640705876 -1.297111978552408 0.0
0.3370938528441455 -1.361094215841909 0.0
0.3591188020499328 -1.428881018705878 0.0
0.3824534317745588 -1.500698661973419 0.0
0.4071756048991007 -1.576786786413765 0.0
0.4333678368521422 -1.657399352071881 0.0
0.3850538286687377 -0.8861133462402498 0.0
0.3544123844990055 -0.8619573685247646 0.0
0.316859289143053 -0.8513661282229831 0.0
0.2440684742644781 -0.8750169561506154 0.0
0.2199124966239545 -0.9056584002976273 0.0
0.2093212563588721 -0.9432114955875743 0.0
1.701912111992633 -0.1950780698426107 0.0
1.603797591433621 -0.199436976756481 0.0
1.506532608526937 -0.2130377953655411 0.0
1.41098574624571 -0.2357590694055984 0.0
1.318010245140155 -0.2673978962191593 0.0
1.228436383031148 -0.307671738827379 0.0
1.14306406107265 -0.3562209488500221 0.0
1.062655660342711 -0.4126119782345509 0.0
0.9879292332821218 -0.4763412512804135 0.0
0.9195520924520867 -0.5468396608685555 0.0
0.8581348505453753 -0.6234776512576602 0.0
0.8042259683703371 -0.7055708390629479 0.0
0.758306855778966 -0.7923861265663821 0.0
0.7207875737039524 -0.883148247067548 0.0
0.69200317202737 -0.977046688324725 0.0
0.6722106975490889 -1.073242930411033 0.0
0.661586898461167 -1.170877934139412 0.0
0.6602266460762423 -1.269079811594993 0.0
0.6681420875426509 -1.366971613343132 0.0
0.6852625373933117 -1.463679158262194 0.0
0.7114351087649784 -1.558338841045726 0.0
0.7114525128319134 1.558332074583853 0.0
0.685279681752679 1.463673411280913 0.0
0.6681588766721769 1.366966857120642 0.0
0.6602429875205782 1.269076008014105 0.0
0.6616027038077008 1.170875036558869 0.0
0.6722258831589305 1.073240884323721 0.0
0.6920176598613073 0.9770454310867652 0.0
0.7208012919109266 0.8831477092789404 0.0
0.7583197393878874 0.7923862322666351 0.0
0.8042379599473273 0.7055715063231159 0.0
0.8581459007418298 0.62347879296966 0.0
0.9195621594943448 0.546841186676559 0.0
0.987938285004823 0.4763430661265016 0.0
1.062663673536022 0.4126139846097182 0.0
1.143071022077905 0.3562230473063338 0.0
1.228442287368511 0.3076738292333481 0.0
1.31801509796386 0.2673998783524502 0.0
1.410989562261848 0.2357608439228307 0.0
1.50653541197104 0.2130392647058117 0.0
1.603799415515638 0.1994380461171574 0.0
1.701912998624745 0.195078647966815 0.0
-1.262209727514811 1.158183981988647 0.0
-1.180271896055858 1.10404091787511 0.0
-1.093589166162629 1.057874003875635 0.0
-1.002935620521423 1.020095513712106 0.0
-0.9091208020840768 0.9910428121441546 0.0
-0.8129824837916262 0.9709753418093618 0.0
-0.7153791873644317 0.9600723065997567 0.0
-0.6171825174740119 0.9584310714428828 0.0
-0.5192693773729572 0.9660662926546686 0.0
-0.4225141381319303 0.9829097871835708 0.0
-0.3277808308974733 1.0088111414626 0.0
-0.2359154314655097 1.043539054322245 0.0
-0.1477383039012869 1.08678340311811 0.0
-0.06403687618209108 1.138158012738109 0.0
0.01444139214773965 1.197204104368899 0.0
0.08699568444402328 1.263394392124785 0.0
0.1529780857052538 1.336137791981316 0.0
0.2117993684683204 1.414784700242923 0.0
0.2629342546465026 1.498632794654891 0.0
0.3059261060360278 1.586933305815773 0.0
0.3403910022000087 1.678897703586916 0.0
-1.49154357379126 -0.842532670123984 0.0
-1.414730212523285 -0.7813363700937002 0.0
-1.344036359099269 -0.7131626310304807 0.0
-1.280093314599135 -0.6386202491925186 0.0
-1.223472095041302 -0.5583748934309112 0.0
-1.174678331941708 -0.4731431604937805 0.0
[...]
<PointData Scalars="solution">
<DataArray type="Float64" Name="Real part" format="ascii">
0.8090169943749473
1.0
1.0
0.309016994374947
0.309016994374947
0.309016994374947
0.309016994374947
0.2248072050410225
-0.9703195512498576
-0.6661110796008237
-0.5809631030041346
-0.02234338046519208
-0.8239729720565567
-0.1757418702114726
0.6743797106149232
-0.9955578003935757
-0.8944442495060686
-0.7994946586960638
-0.5287574922034336
0.001489426059055562
-0.13707973457012437
0.001511724050954065
-0.7995174706254211
-0.5287920164376563
-0.9955547321238883
-0.8944308851541563
0.6743921910811762
-0.13706226083075804
-0.8239555855060737
-0.5810087266463135
-0.02239839090153473
-0.9703054957453666
-0.6660669642571879
0.22483911115412003
-0.175713771821864
-1.0412394174032236
0.04161401848760894
0.11221865674060007
0.040614714118654124
0.9556627062477788
0.8164493966711038
0.5808216014838165
0.26122448842725415
-0.11205659656068523
-0.48928368548445006
-0.8039860278924231
-0.9821939315856563
-0.9595288463216387
-0.7051583271446993
-0.2474792004131673
0.9556627062477788
0.8164493966711038
0.5808216014838165
0.26122448842725415
-0.11205659656068523
-0.48928368548445006
-0.8039860278924231
-0.9821939315856563
-0.9595288463216387
-0.7051583271446993
-0.2474792004131673
0.971231602693446
0.9029167958013532
0.8361936718970707
0.836193672251325
0.9029167967316873
0.971231603192739
0.13397741171163344
0.0365174869042312
-0.06709863739853153
-0.17606606286278845
-0.28916988249710873
-0.40469955854931305
-0.5203597738212102
-0.6331849973853778
-0.7394678309843944
-0.8347155444343171
-0.9136560804372926
-0.8727223571939365
-0.9162458776928195
-0.952785597170653
-0.9803289091617564
-0.9966149115002885
-0.9991601757100901
-0.9853113911815228
-0.9523343544557062
-0.8975498495881691
-0.8185281290945144
-0.7133527913400038
0.2527878719816197
0.18789168419482075
0.03723108880458937
-0.40786791557448404
-0.6100083313660011
-0.7503542260205263
0.831573314893425
0.9451727585391196
0.9981247716558695
0.9745006062711304
0.8623146229622721
0.6571604616560138
0.3663416502239532
0.012768318417468734
-0.3626229852336176
-0.7016818455409434
-0.9351250354587174
0.24090625603941093
0.47897643094615544
0.6967888873842957
0.8716080546521764
0.9785157062652009
0.9933814551777005
0.8973418476684586
0.6826650544178104
0.3593338587297334
-0.039110410163066565
-0.4528656905267755
0.49469706067705327
0.26915689667246306
0.042499673807334847
-0.23784915637764809
-0.247187133359046
-0.16417681055842845
0.2409288022125865
0.47899769025642147
0.6968070090214874
0.8716209827954
0.9785213856060507
0.9933781475465536
0.8973285579328251
0.682642029760698
0.3593030732031081
-0.0391449404689781
-0.4528979815235244
0.831583220540013
0.9451789053317555
0.9981259877052364
0.9744958988799673
0.8623034051326249
0.6571428256107116
0.3663186522817418
0.012742207447250336
-0.3626487001695714
-0.7017026223690551
-0.9351359560163671
-0.1641557579525154
-0.24716763602152195
-0.23783087449756957
0.042516417369843525
0.26917260489302086
0.49471127813325644
-0.8727066399943983
-0.9162323401413052
-0.9527748221017859
-0.9803215508932905
-0.9966116897928889
-0.9991618627243761
-0.9853187889406291
-0.9523482599218812
-0.8975710041632765
-0.8185571492903492
-0.7133900778592829
0.13401135585129045
0.036553314354799187
-0.06706117717866475
-0.17602733838465875
-0.2891304044439714
-0.4046600050581039
-0.5203210151798271
-0.6331481175367876
-0.7394341420194476
-0.8346865887383086
-0.9136336134254651
-0.7503346926472251
-0.6099855538240384
-0.4078419931905478
0.03726024839721721
0.18792134769615576
0.2528183026904065
-0.2975688283471065
-0.7947629041764562
-0.9991577480322639
-0.84763042064532
-0.4144341655800863
0.13507405427529948
0.6224728118070134
0.9235048099269701
0.9971253083489335
0.8749474188907418
0.6283507199763555
0.33415806766054074
0.052169820134125175
-0.18251821970107301
-0.35639325705949343
-0.46953549725316635
-0.5273816941653902
-0.5346238790405452
-0.49195027799085905
-0.3956334494846381
-0.2399461284742204
-0.23983996867762716
-0.3955345151356893
-0.4918584338883904
-0.534537105476679
-0.5272973167272372
-0.4694512527976606
-0.3563082032107081
-0.1824334728334813
0.05225065982977764
0.33422908094205267
0.6284047304906157
0.8749780454223673
0.997129616062781
0.923485495780911
0.6224385805998928
0.13503729612141077
-0.41446191478866296
-0.8476431421487618
-0.9991570250802954
-0.794755948186252
-0.2975635098271657
-0.07664075270674438
0.42423288860983227
0.8320306184893896
0.9998298949300034
0.8413550628886405
0.38548244281064015
-0.21581749841591466
-0.7409721489065463
-0.9926796048473899
-0.8838071939781899
-0.469488500562909
0.08838048945253138
0.5992221788296351
0.9201411414316397
0.9958861365976646
0.854291526460117
0.5725450206650387
0.23772365269615384
-0.0811788916518868
-0.3442070417997116
-0.5378994694619598
-0.9985887586511468
-0.8598779020867213
-0.5570653523840516
-0.1879572100498759
0.16590902748820752
0.4557903845751431
0.6653190602937324
0.8006557541230481
0.8785764180010999
0.9168366143906911
0.9280869828410352
0.9168379193389341
0.8785795263350978
0.8006615600109086
0.6653286066511008
0.4558044212838952
0.16592738230148302
-0.18793629944757217
-0.5570456065516539
-0.8598646028250759
-0.9985872662633484
-0.5378522726797904
-0.3441573553788775
-0.08112907951310766
0.2377694832747472
0.5725815572405586
0.8543134312060416
0.9958897548605578
0.9201262703588057
0.5991931446341426
0.08834579793771073
-0.46951823265701476
-0.8838225426421105
-0.9926757100241848
-0.740950668409269
-0.21578621524439345
0.38551233618583686
0.8413729325060637
0.9998292667320293
0.8320110450292053
0.4241995460311548
-0.07667926187919319
-0.9923491716891641
-0.8403876627621684
-0.6006087312233911
-0.30220847731053635
0.024217783742283748
0.34270264333493217
0.6295925298342052
0.8126403404013107
0.8958238419011841
0.817939806119256
0.6624370812011943
0.3931557209507366
0.0823641227534949
-0.2142533966776459
-0.44457455638362076
-0.5486142820993537
-0.5459135950203329
-0.40472766357523027
-0.18337207621750734
0.06751842380568013
0.2832431175416984
0.4230143169200293
0.4503038462539162
0.35106064496921424
0.17229539101671032
-0.05015646699670602
-0.2421412425252518
-0.37770633133905585
-0.3834987229517775
-0.297380098756477
-0.12350050112725161
0.0816003866239219
0.25462507002621904
0.3585142580651588
0.3452773201720585
0.23664784674964925
0.04881275708807614
-0.1573138547745645
-0.3280534439361791
-0.3959203498130125
-0.3713571066950467
-0.2237280805657189
-0.012788046044114203
0.21181483162985884
0.3906249629947843
0.4987141597116066
0.49514402553422054
0.4079824896886541
0.25159703976005365
0.0973867596590543
-0.026465331885832447
-0.08268638226002836
-0.06445609062666181
0.19809126196027005
0.3505913944043357
0.4947081474750953
0.5577561710006211
0.5428199482623284
0.451631185498355
0.2975405331393155
0.11531469961885946
-0.06132985835965915
-0.2076279954164676
-0.3023403951186882
-0.3465697316804754
-0.35904249669009447
-0.3241250053815369
-0.2987442550724114
-0.29357484422763225
-0.27602256584591645
-0.2859352640542879
-0.3017933587792566
-0.2904000997121297
-0.2594169368345631
-0.19089464414653323
-0.089179293971173
0.04478699087344415
0.18757891909736152
0.3153445950242548
0.41507410846032483
0.46010123216050347
0.4097328533499196
0.29524458493773476
0.10535832477895672
-0.1252317346272015
-0.37346880348245337
-0.5988200322418188
-0.7947933288769742
-0.9013954293163251
-0.9444731569204525
-0.8820193108306772
-0.7619900978429847
-0.5780969010403214
-0.3704604697773294
-0.16231673727846238
0.021658295947684578
0.1711541860299021
0.27293806029734563
0.3328151855819671
0.34286594598111636
0.32641347278182276
0.28447456100455387
0.23652667361762064
0.19170840865589758
0.14623349956339277
0.12057576353288567
0.12546687089461278
0.1455043607273005
0.18694329897069217
0.23570131786556647
0.28933406763765884
0.32423064555879844
0.3394788797909716
0.331519605896978
0.2745749768560533
0.1713912278504579
0.01842463368127475
-0.16627956140177796
-0.37441326930255636
-0.5742850916527026
-0.7626307442107025
-0.8829648755076376
-0.9324247707117053
-0.9153530788807427
-0.7959102273839352
-0.6039937804876396
-0.37802400629069743
-0.12979382904886377
0.0995897250108071
0.28935592991355985
0.40371178854498524
0.4495910013994658
0.40613013483283456
0.3077383959163827
0.18102600956188436
0.03890254562071882
-0.09408227309793188
-0.19462427423634285
-0.26189741634718694
-0.2917814197480103
-0.3023264713821733
-0.2859185896625164
-0.2758661078746437
-0.29359216330940696
-0.2991485711661196
-0.3250078819788901
-0.36039945477848156
-0.3481332106983193
-0.30388603658850316
-0.20885764431208548
-0.06210254404479788
0.1151401778207364
0.2978912266540144
0.4523332007162233
0.5436039271539033
0.5583757734509769
0.4949454455473547
0.35034489205277974
0.19737928155877318
-0.0655011013358821
-0.08348977669451783
-0.026818075832534052
0.09762874728397694
0.25245349417675134
0.40926094475008323
0.4966858275825645
0.5003266598961481
0.3921819940549661
0.21334913926467874
-0.011069399477258657
-0.22159510563238602
-0.3686440040046397
-0.39261917951668274
-0.32433334241513084
-0.15370904535738855
0.051783624208080775
0.23837793880809593
0.3453997038162254
0.3569669440390324
0.25157249163234463
0.0776331842981286
-0.1277095896453052
-0.30119571775973525
-0.38639517908932086
-0.3795643595394268
-0.24308283736605912
-0.05065132123671628
0.17155940288101298
0.34938180021127163
0.448847906172806
0.4215542344216216
0.2810599243471648
0.06370618688926676
-0.18526276268518962
-0.40868544302181226
-0.5486618775987778
-0.5491969832986173
-0.4446464427674631
-0.20883697679046118
0.08867626032741541
0.3969049501706611
0.6552670438323758
0.8360620005088903
0.8835837096130656
0.8131357903490016
0.6180023776479043
0.34214364298638705
0.020548203123779998
-0.3094139347015419
-0.6089103998815575
-0.8427124468621461
-0.9939146325993692
-0.04041099299216805
0.7458570302490092
-1.086738306461128
-1.0822795771905016
-0.613638106987898
-0.6159275128003973
-0.9807169491604613
-0.9904354938840839
-1.7187622393778694
0.06290148920188766
0.48673634768872853
0.4949849255102788
0.4354256839683609
0.4372160477486233
-0.909683991079587
0.2470702837301109
-0.10616992227947998
-0.10535831300944826
-0.300527073954503
-0.29944835172250495
0.4153568851220131
0.4128311214802727
-0.04453148916868368
-0.04833770302782962
1.1617595612459015
1.2046245376204086
0.9997121415937933
1.0008213154421939
-0.23578345224300945
-0.8712349179543921
0.9251853346752837
0.9102988071070329
-0.23348846874804172
0.6360658870257836
0.6348127969181263
-0.782016695103729
0.04567836377336114
0.08259138171682401
0.43385624465802625
0.4397920255271139
0.3979991047289042
0.4448646940382587
-0.04856827795373768
-0.05008092522219835
-0.030647878562642707
-0.02968199054898913
0.6222551129217624
0.6214883279135609
-0.3788526358762034
-0.3908222832841961
0.24317651698888723
0.24606549501130148
-0.9654076586978746
-0.9717187793373385
-0.3188771576035242
-0.330388422499381
0.08656376492101156
-0.54527645013205
-0.48255156036096575
-0.15832277192112815
0.0034470894777345017
-0.6607158782563559
-0.6378059881725225
-0.7773072308662796
-0.8041315591409444
-0.8017305775555177
-0.8020328998305511
-0.15532160855585764
0.3894141620815175
0.7623394183572398
-0.24358870772938918
0.6924427769005421
-0.22981171130318787
0.44908576359811614
1.1425362512744979
-1.0600308959968587
-1.0295281168853259
1.1569641681516092
0.6903678485961701
0.8010828544495298
0.8102021866807426
0.4780919156339725
0.11744843836521836
0.11713722784493513
0.2277209246901673
0.22732930311332186
0.6955813413794862
0.6895180851513492
0.4882745117854796
0.1919580689258331
0.19804861575622018
0.9971130396402359
0.993702725012403
0.180130644924121
0.1778544381449534
0.039097726295592106
0.4373341775640755
0.4723024544825356
0.08213147194306855
0.07866341951054436
-0.6163414033484249
-0.6161600173023498
-0.30267506858826076
-0.3015625594118673
0.27681490516505
0.2775944326492468
0.7700908405868326
-0.07693833276223568
-0.05296222985256174
0.13954290157111465
0.1422111799382676
-0.2073955991864668
-0.20301052899732208
0.21520013167127833
0.19498808385738176
1.0143589172222591
-0.5122077563841859
-0.5163055719118431
0.5404578231185138
0.5390970970711538
0.033391115098700755
1.0471889655251305
-0.43455894721111143
-0.8639800237188204
1.0338076824483615
1.0329920095876979
0.5605258386666219
0.5617428033405074
0.9565533277685279
0.25645321586420444
0.9360453875404686
-0.5347365835849327
-0.5344351510403402
-0.9261684000980697
-0.9267029054575464
0.2843862125100984
-0.7876998607576421
-0.7871758338501613
0.19576224634123277
-0.43796463966570837
-0.1314678851552077
-0.13490347188236193
0.9799183886670271
1.209444172140433
0.6119960838554425
0.5976825174086384
-1.0042949739886082
-1.0049154020997773
-0.10969096619018923
-0.41738654946416004
-0.4285526611033162
-0.12687837835862067
-0.3864505666339046
-0.38629341335769163
-0.7843392818694532
0.9822184408054792
0.25299908239838426
0.2331064830012336
0.31880417728684574
-0.4337227403974694
0.38204074293167833
0.42898490495813324
0.4279966036284428
-0.28954336177738027
-0.295879696437472
-0.9822868392539836
-0.9849110855864236
-0.4533373911081977
-0.8572006159489932
0.7070262963465982
-0.9656575475607897
-0.964728104093296
-0.23269807031081088
-0.22911540379640438
0.22893917660565793
-0.4003518497291692
-0.40166326869211944
0.3243294718104647
0.3217753748543398
-0.001912821399392247
0.6470976852563111
-0.9778239189429416
-0.9615297637949279
0.8767124432465241
-0.22419573095553494
0.8057848129128552
0.46724202140201565
-1.1216052749238659
-0.859174280160672
-0.3343817794019871
-0.13836488388809184
0.4398874519282401
0.43876538231465295
-1.0514309552113632
0.18643076475933418
0.8793330918958936
0.8719163754721386
0.7559927519223496
-1.044915079116314
0.7191211658200308
0.5812272677359065
0.26622260553987426
-1.3789322415396512
1.1573763957755863
1.16198234485063
-0.1561790284101843
-0.1570533143620363
0.3940425944412303
0.9975568695446345
0.38097873722317094
0.39332463178790206
-0.3841553074037513
-0.36357104857317746
0.6091354108489151
-0.13515443470965996
0.9074135598727918
0.7575372141012943
-0.7604815042365972
-0.4511861638464153
-0.4511257655875137
-0.7937401233598773
-0.6063102180652395
-0.6074959337146799
0.6085307418121195
-0.14454735808292227
0.15810592534304505
0.15785966384170874
0.5469924500440313
-0.16006318390761112
-0.9624046099591717
-0.9657528409292586
0.2260593774085487
0.22348321944267008
-0.04937888655829868
0.9274750876218487
0.9238229710356132
0.40240512533772627
0.40563919130029313
-0.25641318520628587
-0.25622129478481165
0.06848050644744413
0.0685532255218463
0.43745012013981893
0.43652511315215026
0.0894459402809817
0.0880272271220908
-0.19271195532429788
-0.0677032124705624
0.2906324966156238
0.2912169360417369
-0.7194256020006587
-0.12667226646089766
-0.12978115145375294
-0.7068019106018625
-0.36098001642789984
-0.3614640546055372
-0.4169989505485949
-0.41819173103873036
0.60815059576748
-0.09200479353356325
0.322541793552369
0.3192110119384148
0.8783581525455363
0.8748254026710008
0.9720957567560131
0.9777875549011785
0.6492442015968821
0.2877799143409587
0.128147722361032
0.5059169840173636
-0.6323699224032407
0.9893053961494657
-0.47140755198350104
0.14725793540357002
-0.08741346089199173
-0.08626182163607268
-0.5761880922812115
-0.5753104197864688
-0.544943768731726
-0.5372819042682051
-0.6126059164758874
-0.42254395436330894
0.4422571883475892
-0.8551481427745736
-0.8551003070582055
-0.48530143934817593
0.15879040490273685
0.1599896314003179
0.07301380029801248
-1.013222608998195
-0.46410585349382927
1.063725927336808
0.9090413956040644
-0.0741492080823469
-0.32203837196404245
-0.9986262203767887
-0.8599385048325301
0.696496239260544
-0.4996632954775749
0.8765524984885456
-0.49939915386310163
0.6964301596962589
1.0743938695467317
0.2736157443443654
0.2516479964864748
0.5042679849040491
0.5041206695959076
0.9495990810682875
0.9492361115530796
-0.3611233612962232
-0.3611053671519149
0.05638290791576935
0.05395854054198919
0.022592242193301866
0.022568407461090415
0.6383400671724696
0.103800403303373
0.16149468267324402
0.6165526615225572
0.7667766612290708
0.4800066931274892
0.8945855220396742
-0.6211788979125389
-0.622139829015791
0.3793855457239451
0.9902596881699923
-0.4948850027151658
-0.493910146542955
0.7363109727291399
0.05763495674586949
1.0037790971912532
-0.30548444390908513
-0.12568005216566905
-0.12503348247391619
-0.520628606158967
-0.06515609679540901
0.3113415614651347
0.2372981442653995
0.4038348964828117
-0.040931383809512945
-0.3503067332006902
-0.35132407373345437
-0.6344892088224636
1.2495403890954757
-0.10326122396462871
-0.13945307996722126
-0.6557122351444526
-0.09268846614636848
-0.09125056395426523
0.05536976064970991
1.4709810539250059
0.8617165542245989
-0.19841647929529907
-0.20409633537223723
0.8825853836003726
1.165769775029326
0.759511015784782
0.8230953970415149
0.5728640395642581
0.5759499281854028
1.1691161583652916
-0.11160672312090109
-0.535885720849375
-0.5099165253293256
0.46789287644811894
0.8795547958638937
-0.4713620654926345
0.7387117068243196
-0.10526229991737289
-0.4911485133832381
0.6569359424977298
0.6563405247943234
-1.275851029305693
-0.3726317234017218
-0.3721599532797749
-0.15203403219378087
-1.2600584129281658
-0.32046791909177347
-0.32003429730786925
-0.9993514595123469
-1.000201448205947
-0.20030995652300737
-0.2003497243413877
1.4373030435556025
-0.24706733006968815
-0.24708632365506894
0.3019906700580662
-0.24877448809549418
0.19439632188080058
0.15820023142423295
0.15538212722140096
0.2863548415959639
0.6073962409310383
0.6026143756532376
-0.23820546952315033
0.11250578388663587
-0.8061123763201631
-0.10320816222536758
-0.10146666873016033
0.9772730628002829
-0.8186325022400047
-0.8207677419346048
-0.5853367398925302
-0.5846388606682977
-0.4336226941858331
-0.4356171586683925
-0.46114964154057236
-0.4553125443854081
0.5246005274162227
0.5205048331241571
-0.17562713151647452
0.07417267042769737
-0.11895216935719174
-0.27583622448820416
-0.5005592416829926
-0.5009077366588265
0.10168850497557262
0.5057706026458655
0.5255850126589492
0.5272232303072539
0.7670458649403527
0.25007137998790885
-0.09515648627471097
-1.2082413446052727
0.6439176226780763
0.6385010177064918
-0.6749856378880207
-0.6749383517908644
0.9754419744189986
0.9754370018628349
0.3592805142172215
1.0077306341359136
0.6420090483048401
0.6415291241800415
-0.9032975864276794
-0.9059132556949689
-0.0680647269295391
0.597457809880374
0.5931033348976219
-0.2281269909075715
-0.6502437846620879
-0.6459049521316009
-0.9558822983568948
-0.9499695814627435
0.7721224276087031
-0.14758316241798874
0.20968473119123437
0.20769291563333475
0.09142819992651446
0.51285490797749
1.0140397796946594
-0.04546924525109941
0.5011599469026098
0.44719817929218186
0.21085929808357623
0.483901333154164
0.1597455053782633
0.4080299447281024
0.32387118592654607
0.22321998264928122
0.2121038767867163
0.15161470833164112
0.15058041667367678
1.3949060537348352
0.3376312189715202
0.3393504974365028
0.724917255862181
0.7245020913220623
-0.3228252579863826
-0.3216885295347041
0.22410684434464867
0.22324307038051194
-0.9906595888838532
-0.6049088067029618
-0.6140471129588263
-0.42514784548636775
0.514955552894087
-0.07253981205043088
-0.07349213097531915
0.9508709904003733
-0.21407767619321036
-0.04120705294478601
-0.04031534300966695
0.5417995448746856
0.5418838981788329
0.5205245264913909
0.5199527286662851
-0.19802876198346192
0.08379268791108888
0.7843050412546009
0.7850069433826198
-0.7191237708512619
0.5325909871776414
0.5326729302112877
-0.10725622159064252
-1.1987791824017733
-1.740883109236214
0.8190494240696424
-0.22207822039054176
-0.2205149747637673
-0.2158783691682953
-0.6895040418984439
1.1614505590965523
0.1853850347611509
0.18306638539611703
-0.5134148702774397
-0.8838859768050111
-0.3806269143860574
0.8750169986202605
0.7344548389045144
0.7339891759673172